% Model:              rectangular_wire_2.mph
% Version:            COMSOL 5.3.1.229
% Date:               Oct 26 2018, 12:48
% Dimension:          2
% Nodes:              40401
% Expressions:        1
% Description:        Magnetic flux density, x component
% Length unit:        µm
% x                       y                        mf.Bx (T)
-10                       -10                      1.7828848375987865E-9
-10                       -9.9                     1.7874556398150296E-9
-10                       -9.8                     1.7920264420312925E-9
-10                       -9.7                     1.7965972442475467E-9
-10                       -9.6                     1.801168046463772E-9
-10                       -9.499999999999998       1.8046953928809668E-9
-10                       -9.4                     1.8086118815433905E-9
-10                       -9.3                     1.8127254597389636E-9
-10                       -9.199999999999998       1.8168390379345928E-9
-10                       -9.1                     1.8201243945895207E-9
-10                       -9                       1.822938946695667E-9
-10                       -8.9                     1.8263643030291069E-9
-10                       -8.8                     1.8298554998788238E-9
-10                       -8.7                     1.832751760351229E-9
-10                       -8.6                     1.834859021255057E-9
-10                       -8.5                     1.8369360941634728E-9
-10                       -8.399999999999999       1.83965573165329E-9
-10                       -8.3                     1.8422434246201366E-9
-10                       -8.2                     1.8434250532864839E-9
-10                       -8.099999999999998       1.8446066819528775E-9
-10                       -8                       1.84565818261087E-9
-10                       -7.9                     1.8474482191588965E-9
-10                       -7.8                     1.8481737068177436E-9
-10                       -7.699999999999999       1.8481683507471816E-9
-10                       -7.6                     1.8481629946765833E-9
-10                       -7.499999999999999       1.847867755615234E-9
-10                       -7.4                     1.848277975990011E-9
-10                       -7.3                     1.8469356300819608E-9
-10                       -7.199999999999998       1.845593284173904E-9
-10                       -7.099999999999999       1.8442509382658537E-9
-10                       -7                       1.8430553507261014E-9
-10                       -6.9                     1.8401482160782532E-9
-10                       -6.799999999999999       1.8372410814303984E-9
-10                       -6.699999999999999       1.8344616385032408E-9
-10                       -6.6                     1.831712775708333E-9
-10                       -6.5                     1.8271339413936118E-9
-10                       -6.3999999999999995      1.8225840231272335E-9
-10                       -6.3                     1.8180341048608502E-9
-10                       -6.199999999999999       1.813484186594473E-9
-10                       -6.099999999999999       1.80720073969018E-9
-10                       -6                       1.800527480137646E-9
-10                       -5.8999999999999995      1.7938542205851024E-9
-10                       -5.8                     1.7871809610325753E-9
-10                       -5.699999999999999       1.7779275752119129E-9
-10                       -5.6                     1.7701558983540193E-9
-10                       -5.5                     1.7609638086326952E-9
-10                       -5.3999999999999995      1.7517717189113677E-9
-10                       -5.299999999999999       1.7409064531560469E-9
-10                       -5.199999999999999       1.7295808080183596E-9
-10                       -5.1                     1.7184546719318699E-9
-10                       -5                       1.7061143238933673E-9
-10                       -4.899999999999999       1.6937739758548139E-9
-10                       -4.8                     1.6792722642417047E-9
-10                       -4.699999999999999       1.6658032306284599E-9
-10                       -4.599999999999999       1.6494789143604337E-9
-10                       -4.5                     1.6331545980924236E-9
-10                       -4.3999999999999995      1.6173735378202978E-9
-10                       -4.3                     1.5986829659945139E-9
-10                       -4.199999999999998       1.5801867368744907E-9
-10                       -4.1                     1.5616905077544873E-9
-10                       -4                       1.5431942786345502E-9
-10                       -3.899999999999999       1.520881893274735E-9
-10                       -3.8                     1.4981237208534012E-9
-10                       -3.6999999999999993      1.4748104095234205E-9
-10                       -3.599999999999999       1.4516251044937149E-9
-10                       -3.5                     1.4287447141700473E-9
-10                       -3.399999999999999       1.4016456906524057E-9
-10                       -3.3                     1.3745466671347661E-9
-10                       -3.199999999999999       1.3474476436171286E-9
-10                       -3.0999999999999996      1.3212961901948996E-9
-10                       -3                       1.2888334550433134E-9
-10                       -2.8999999999999995      1.2580369917234415E-9
-10                       -2.8                     1.2272405284035878E-9
-10                       -2.6999999999999993      1.1964440650837242E-9
-10                       -2.5999999999999996      1.1603609076585503E-9
-10                       -2.5                     1.1267017065989425E-9
-10                       -2.3999999999999995      1.0910571650792284E-9
-10                       -2.2999999999999994      1.055412623559468E-9
-10                       -2.1999999999999993      1.0173592525758483E-9
-10                       -2.099999999999999       9.780027555929749E-10
-10                       -2                       9.386462586100666E-10
-10                       -1.9000000000000001      9.000120473847224E-10
-10                       -1.799999999999999       8.575665271084516E-10
-10                       -1.6999999999999993      8.15121006832214E-10
-10                       -1.5999999999999994      7.726754865559498E-10
-10                       -1.5                     7.276528834733368E-10
-10                       -1.4000000000000004      6.856478691731447E-10
-10                       -1.2999999999999987      6.386331407789095E-10
-10                       -1.1999999999999993      5.916184123847404E-10
-10                       -1.0999999999999996      5.447086134319629E-10
-10                       -1                       4.977634861286547E-10
-10                       -0.9000000000000002      4.508183588253349E-10
-10                       -0.7999999999999989      3.9897444629124483E-10
-10                       -0.6999999999999992      3.5389781072612536E-10
-10                       -0.5999999999999996      3.0151793179033947E-10
-10                       -0.5                     2.526928701860735E-10
-10                       -0.3999999999999986      2.0386780858178106E-10
-10                       -0.29999999999999893     1.5164176048104987E-10
-10                       -0.1999999999999993      1.0145553429755847E-10
-10                       -0.09999999999999964     5.1269308114118777E-11
-10                       0                        2.1615643442283364E-12
-10                       0.10000000000000141      -5.1675711225387106E-11
-10                       0.20000000000000104      -1.0189349238597516E-10
-10                       0.30000000000000066      -1.5211127354653013E-10
-10                       0.40000000000000036      -2.0345303921905553E-10
-10                       0.5                      -2.530701636551545E-10
-10                       0.6000000000000013       -3.026872880911807E-10
-10                       0.7000000000000011       -3.494689419343489E-10
-10                       0.8000000000000007       -4.023077031327924E-10
-10                       0.9000000000000002       -4.503993275805804E-10
-10                       1                        -4.984909520283617E-10
-10                       1.1000000000000014       -5.451550863122759E-10
-10                       1.200000000000001        -5.93421809317319E-10
-10                       1.3000000000000007       -6.399459454769826E-10
-10                       1.4000000000000004       -6.829991924068194E-10
-10                       1.5                      -7.282473745475875E-10
-10                       1.6000000000000014       -7.730538541127035E-10
-10                       1.700000000000001        -8.178603336778261E-10
-10                       1.8000000000000005       -8.590752055544372E-10
-10                       1.9000000000000001       -8.978897467484486E-10
-10                       2                        -9.393905864815607E-10
-10                       2.1000000000000014       -9.80856643228503E-10
-10                       2.200000000000001        -1.0180549210739404E-9
-10                       2.3000000000000003       -1.0548446203877475E-9
-10                       2.4000000000000004       -1.0916343197016902E-9
-10                       2.5                      -1.1268823377202082E-9
-10                       2.6000000000000014       -1.1613862662643274E-9
-10                       2.7000000000000006       -1.1958901948084155E-9
-10                       2.8000000000000007       -1.2286622650310063E-9
-10                       2.9000000000000004       -1.2591283788313292E-9
-10                       3                        -1.2894978168613446E-9
-10                       3.1000000000000014       -1.3196097256324289E-9
-10                       3.200000000000001        -1.3497401967996006E-9
-10                       3.3000000000000007       -1.375609371207057E-9
-10                       3.4                      -1.4014785456145266E-9
-10                       3.5                      -1.4279996823214889E-9
-10                       3.600000000000001        -1.4521966345057451E-9
-10                       3.700000000000001        -1.4758978793799714E-9
-10                       3.8000000000000003       -1.4988278086895021E-9
-10                       3.9                      -1.5217577379989792E-9
-10                       4                        -1.5437031077294735E-9
-10                       4.100000000000001        -1.5623404506878118E-9
-10                       4.200000000000001        -1.580977793646117E-9
-10                       4.300000000000001        -1.5996151366044386E-9
-10                       4.4                      -1.6181414554864917E-9
-10                       4.5                      -1.6338600837992078E-9
-10                       4.6000000000000005       -1.6499240159709457E-9
-10                       4.700000000000001        -1.6659879481426934E-9
-10                       4.800000000000001        -1.6817855009579058E-9
-10                       4.9                      -1.6940335416391058E-9
-10                       5                        -1.7062815823202776E-9
-10                       5.100000000000001        -1.7187715730623906E-9
-10                       5.200000000000001        -1.7310688605095583E-9
-10                       5.3                      -1.7414180357751543E-9
-10                       5.4                      -1.7517768116082984E-9
-10                       5.5                      -1.762135587441431E-9
-10                       5.600000000000001        -1.7720177371778228E-9
-10                       5.7                      -1.7793157966365516E-9
-10                       5.800000000000001        -1.7866138560952738E-9
-10                       5.9                      -1.7944841755258183E-9
-10                       6                        -1.8017639833464151E-9
-10                       6.1000000000000005       -1.8074103920890988E-9
-10                       6.199999999999999        -1.8132746427842224E-9
-10                       6.300000000000001        -1.8190923473916248E-9
-10                       6.400000000000002        -1.8240624089299809E-9
-10                       6.5                      -1.827624381900323E-9
-10                       6.600000000000001        -1.8317401944242991E-9
-10                       6.699999999999999        -1.835043833670526E-9
-10                       6.8                      -1.8382485139638753E-9
-10                       6.900000000000002        -1.8408582793292504E-9
-10                       7                        -1.8434680446945974E-9
-10                       7.100000000000001        -1.8454486449142281E-9
-10                       7.199999999999998        -1.8463690149977612E-9
-10                       7.300000000000001        -1.8472893850812876E-9
-10                       7.400000000000002        -1.8481868630991414E-9
-10                       7.499999999999999        -1.8490399273405791E-9
-10                       7.6000000000000005       -1.849102922844512E-9
-10                       7.699999999999999        -1.849165918348443E-9
-10                       7.8                      -1.8490996197793716E-9
-10                       7.900000000000002        -1.8478580551742973E-9
-10                       8                        -1.8466164905692362E-9
-10                       8.1                      -1.8461748971055362E-9
-10                       8.2                      -1.8437544087850693E-9
-10                       8.3                      -1.8423824343316122E-9
-10                       8.400000000000002        -1.84044762033559E-9
-10                       8.5                      -1.8385128063395992E-9
-10                       8.600000000000001        -1.8359470296355362E-9
-10                       8.7                      -1.83305422254332E-9
-10                       8.8                      -1.830161415451091E-9
-10                       8.9                      -1.8269289921241695E-9
-10                       9                        -1.8242073741891395E-9
-10                       9.100000000000001        -1.8207965038447565E-9
-10                       9.200000000000001        -1.8173856335003643E-9
-10                       9.3                      -1.8137977199000653E-9
-10                       9.400000000000002        -1.8097034547057378E-9
-10                       9.499999999999998        -1.8056091895113871E-9
-10                       9.600000000000001        -1.8021889124785564E-9
-10                       9.700000000000003        -1.7973830954627415E-9
-10                       9.8                      -1.7929750076613342E-9
-10                       9.900000000000002        -1.7885669198598848E-9
-10                       10                       -1.784408650155778E-9
-9.9                      -10                      1.8061093665680082E-9
-9.9                      -9.9                     1.8110467006204868E-9
-9.9                      -9.8                     1.8155964429316448E-9
-9.9                      -9.7                     1.8201461852427891E-9
-9.9                      -9.6                     1.8246959275539475E-9
-9.9                      -9.499999999999998       1.8291452092005076E-9
-9.9                      -9.4                     1.8332460325023942E-9
-9.9                      -9.3                     1.837359610697987E-9
-9.9                      -9.199999999999998       1.8414731888936015E-9
-9.9                      -9.1                     1.8451583015120102E-9
-9.9                      -9                       1.8486477635300658E-9
-9.9                      -8.9                     1.8521389603797794E-9
-9.9                      -8.8                     1.8556301572295008E-9
-9.9                      -8.7                     1.8591213540791867E-9
-9.9                      -8.6                     1.861038031066566E-9
-9.9                      -8.5                     1.8639276250474056E-9
-9.9                      -8.399999999999999       1.8666472625371964E-9
-9.9                      -8.3                     1.8693669000270136E-9
-9.9                      -8.2                     1.8708093675644973E-9
-9.9                      -8.099999999999998       1.8721622941258354E-9
-9.9                      -8                       1.8739523306738527E-9
-9.9                      -7.9                     1.875742367221923E-9
-9.9                      -7.8                     1.8768393310220962E-9
-9.9                      -7.699999999999999       1.876833974951506E-9
-9.9                      -7.6                     1.8768997753493977E-9
-9.9                      -7.499999999999999       1.877545952067271E-9
-9.9                      -7.4                     1.878283907049883E-9
-9.9                      -7.3                     1.8769415611417833E-9
-9.9                      -7.199999999999998       1.875599215233723E-9
-9.9                      -7.099999999999999       1.8741548698043513E-9
-9.9                      -7                       1.873371842723206E-9
-9.9                      -6.9                     1.8714946727033917E-9
-9.9                      -6.799999999999999       1.868587538055494E-9
-9.9                      -6.699999999999999       1.865680403407629E-9
-9.9                      -6.6                     1.862392447285389E-9
-9.9                      -6.5                     1.8596276380520537E-9
-9.9                      -6.3999999999999995      1.8549423253777413E-9
-9.9                      -6.3                     1.850257012703414E-9
-9.9                      -6.199999999999999       1.8444243302353583E-9
-9.9                      -6.099999999999999       1.840576760543836E-9
-9.9                      -6                       1.833732364963914E-9
-9.9                      -5.8999999999999995      1.826887969383972E-9
-9.9                      -5.8                     1.8200435738040699E-9
-9.9                      -5.699999999999999       1.8135974620015607E-9
-9.9                      -5.6                     1.8040878096862377E-9
-9.9                      -5.5                     1.7946074246691806E-9
-9.9                      -5.3999999999999995      1.7854153349478556E-9
-9.9                      -5.299999999999999       1.776223245226486E-9
-9.9                      -5.199999999999999       1.7653768584520316E-9
-9.9                      -5.1                     1.753036510413505E-9
-9.9                      -5                       1.740696162374969E-9
-9.9                      -4.899999999999999       1.728355814336416E-9
-9.9                      -4.8                     1.7132019088918458E-9
-9.9                      -4.699999999999999       1.7002329815543953E-9
-9.9                      -4.599999999999999       1.684208035821914E-9
-9.9                      -4.5                     1.6688100465066208E-9
-9.9                      -4.3999999999999995      1.6534120571913807E-9
-9.9                      -4.3                     1.635024193920357E-9
-9.9                      -4.199999999999998       1.6154955072505878E-9
-9.9                      -4.1                     1.5960923735742193E-9
-9.9                      -4                       1.577596144454183E-9
-9.9                      -3.899999999999999       1.5548249963540825E-9
-9.9                      -3.8                     1.5332860827666231E-9
-9.9                      -3.6999999999999993      1.5101007777368894E-9
-9.9                      -3.599999999999999       1.4869154727071342E-9
-9.9                      -3.5                     1.4627851084198621E-9
-9.9                      -3.399999999999999       1.4356860849022114E-9
-9.9                      -3.3                     1.408587061384559E-9
-9.9                      -3.199999999999999       1.3802700217433439E-9
-9.9                      -3.0999999999999996      1.351733919311164E-9
-9.9                      -3                       1.3226596852989197E-9
-9.9                      -2.8999999999999995      1.2907020206564778E-9
-9.9                      -2.8                     1.258744356014007E-9
-9.9                      -2.6999999999999993      1.226786691371578E-9
-9.9                      -2.5999999999999996      1.1926869789454267E-9
-9.9                      -2.5                     1.1558060317211174E-9
-9.9                      -2.3999999999999995      1.1201614902013802E-9
-9.9                      -2.2999999999999994      1.0845169486816893E-9
-9.9                      -2.1999999999999993      1.0446296229014695E-9
-9.9                      -2.099999999999999       1.0052731259185935E-9
-9.9                      -2                       9.647649433240643E-10
-9.9                      -1.9000000000000001      9.257873679882091E-10
-9.9                      -1.799999999999999       8.818004382170183E-10
-9.9                      -1.6999999999999993      8.378135084457944E-10
-9.9                      -1.5999999999999994      7.951775871137455E-10
-9.9                      -1.5                     7.510516774288975E-10
-9.9                      -1.4000000000000004      7.040369490347483E-10
-9.9                      -1.2999999999999987      6.570222206405065E-10
-9.9                      -1.1999999999999993      6.10007492246258E-10
-9.9                      -1.0999999999999996      5.594117662517366E-10
-9.9                      -1                       5.124666389483729E-10
-9.9                      -0.9000000000000002      4.636815869674331E-10
-9.9                      -0.7999999999999989      4.1248141747822236E-10
-9.9                      -0.6999999999999992      3.636033704626361E-10
-9.9                      -0.5999999999999996      3.1132925524380744E-10
-9.9                      -0.5                     2.5905514002492915E-10
-9.9                      -0.3999999999999986      2.1133595906403812E-10
-9.9                      -0.29999999999999893     1.5553183481382624E-10
-9.9                      -0.1999999999999993      1.0475503049649277E-10
-9.9                      -0.09999999999999964     5.162649216458239E-11
-9.9                      0                        6.508438637490729E-13
-9.9                      0.10000000000000141      -5.277640718140546E-11
-9.9                      0.20000000000000104      -1.0494228036110412E-10
-9.9                      0.30000000000000066      -1.551600615217385E-10
-9.9                      0.40000000000000036      -2.1010613357933638E-10
-9.9                      0.5                      -2.602644469504823E-10
-9.9                      0.6000000000000013       -3.129224007149398E-10
-9.9                      0.7000000000000011       -3.6192693793763135E-10
-9.9                      0.8000000000000007       -4.140343379907799E-10
-9.9                      0.9000000000000002       -4.639344785234373E-10
-9.9                      1                        -5.120261029712145E-10
-9.9                      1.1000000000000014       -5.622581401755634E-10
-9.9                      1.200000000000001        -6.105248631806495E-10
-9.9                      1.3000000000000007       -6.587915861856992E-10
-9.9                      1.4000000000000004       -7.011646884718803E-10
-9.9                      1.5                      -7.500499932047339E-10
-9.9                      1.6000000000000014       -7.948564727698797E-10
-9.9                      1.700000000000001        -8.396629523349891E-10
-9.9                      1.8000000000000005       -8.844694319001713E-10
-9.9                      1.9000000000000001       -9.242777147420986E-10
-9.9                      2                        -9.657437714890277E-10
-9.9                      2.1000000000000014       -1.0072098282359304E-9
-9.9                      2.200000000000001        -1.0457432018127753E-9
-9.9                      2.3000000000000003       -1.0831901109547233E-9
-9.9                      2.4000000000000004       -1.1221559621341764E-9
-9.9                      2.5                      -1.1567751956508327E-9
-9.9                      2.6000000000000014       -1.192296029506952E-9
-9.9                      2.7000000000000006       -1.2267999580510547E-9
-9.9                      2.8000000000000007       -1.26125122773722E-9
-9.9                      2.9000000000000004       -1.2917173415376157E-9
-9.9                      3                        -1.322183455337985E-9
-9.9                      3.1000000000000014       -1.3526495691383477E-9
-9.9                      3.200000000000001        -1.3824703698927662E-9
-9.9                      3.3000000000000007       -1.4086793994919177E-9
-9.9                      3.4                      -1.435908156776386E-9
-9.9                      3.5                      -1.4631369140608696E-9
-9.9                      3.600000000000001        -1.4881849004359217E-9
-9.9                      3.700000000000001        -1.510738228936335E-9
-9.9                      3.8000000000000003       -1.533284454754899E-9
-9.9                      3.9                      -1.556214384064471E-9
-9.9                      4                        -1.5787087277669463E-9
-9.9                      4.100000000000001        -1.597346070725225E-9
-9.9                      4.200000000000001        -1.6159834136835566E-9
-9.9                      4.300000000000001        -1.6351385921349274E-9
-9.9                      4.4                      -1.6538415742814313E-9
-9.9                      4.5                      -1.6689183213967656E-9
-9.9                      4.6000000000000005       -1.6849822535685167E-9
-9.9                      4.700000000000001        -1.7010461857403274E-9
-9.9                      4.800000000000001        -1.7166945824484318E-9
-9.9                      4.9                      -1.728942623129678E-9
-9.9                      5                        -1.7411906638108566E-9
-9.9                      5.100000000000001        -1.753438704492049E-9
-9.9                      5.200000000000001        -1.7662628004319886E-9
-9.9                      5.3                      -1.775614657494675E-9
-9.9                      5.4                      -1.7859734333278233E-9
-9.9                      5.5                      -1.7963322091609806E-9
-9.9                      5.600000000000001        -1.805753860183485E-9
-9.9                      5.7                      -1.8130519196422203E-9
-9.9                      5.800000000000001        -1.820349979100969E-9
-9.9                      5.9                      -1.8276480385596945E-9
-9.9                      6                        -1.8349096393948147E-9
-9.9                      6.1000000000000005       -1.8401581761645388E-9
-9.9                      6.199999999999999        -1.845975880771961E-9
-9.9                      6.300000000000001        -1.8517935853793405E-9
-9.9                      6.400000000000002        -1.85614953487901E-9
-9.9                      6.5                      -1.8597115078494052E-9
-9.9                      6.600000000000001        -1.863273480819714E-9
-9.9                      6.699999999999999        -1.86763263030791E-9
-9.9                      6.8                      -1.869099394453867E-9
-9.9                      6.900000000000002        -1.8717091598192204E-9
-9.9                      7                        -1.8743189251846237E-9
-9.9                      7.100000000000001        -1.8756817045502304E-9
-9.9                      7.199999999999998        -1.8766020746337436E-9
-9.9                      7.300000000000001        -1.877522444717257E-9
-9.9                      7.400000000000002        -1.8777114181887415E-9
-9.9                      7.499999999999999        -1.877945180805044E-9
-9.9                      7.6000000000000005       -1.878008176308973E-9
-9.9                      7.699999999999999        -1.878071171812922E-9
-9.9                      7.8                      -1.8773807817188252E-9
-9.9                      7.900000000000002        -1.8761392171137492E-9
-9.9                      8                        -1.8748976525086914E-9
-9.9                      8.1                      -1.8730460674264673E-9
-9.9                      8.2                      -1.87208413828181E-9
-9.9                      8.3                      -1.8693370924491728E-9
-9.9                      8.400000000000002        -1.8674022784531497E-9
-9.9                      8.5                      -1.8654674644571267E-9
-9.9                      8.600000000000001        -1.862282624703229E-9
-9.9                      8.7                      -1.8593898176110182E-9
-9.9                      8.8                      -1.856112213111388E-9
-9.9                      8.9                      -1.8537753122467538E-9
-9.9                      9                        -1.8496475885909859E-9
-9.9                      9.100000000000001        -1.8458877415116266E-9
-9.9                      9.200000000000001        -1.8424768711672159E-9
-9.9                      9.3                      -1.838304256212257E-9
-9.9                      9.400000000000002        -1.8342099910179262E-9
-9.9                      9.499999999999998        -1.8301157258235954E-9
-9.9                      9.600000000000001        -1.8253842606436E-9