% Model:              rectangular_wire_2.mph
% Version:            COMSOL 5.3.1.229
% Date:               Oct 26 2018, 12:49
% Dimension:          2
% Nodes:              40401
% Expressions:        1
% Description:        Magnetic flux density, y component
% Length unit:        µm
% x                       y                        mf.By (T)
-10                       -10                      -2.0719620041655572E-9
-10                       -9.9                     -2.095470395695674E-9
-10                       -9.8                     -2.11897878722589E-9
-10                       -9.7                     -2.1424871787560188E-9
-10                       -9.6                     -2.165995570286218E-9
-10                       -9.499999999999998       -2.1898839345264024E-9
-10                       -9.4                     -2.2143329424995583E-9
-10                       -9.3                     -2.2389670934585694E-9
-10                       -9.199999999999998       -2.2636012444176036E-9
-10                       -9.1                     -2.2885006005004007E-9
-10                       -9                       -2.3135345074229093E-9
-10                       -8.9                     -2.3392307374632244E-9
-10                       -8.8                     -2.3650053948138738E-9
-10                       -8.7                     -2.390956273396805E-9
-10                       -8.6                     -2.4171352832083307E-9
-10                       -8.5                     -2.4433308282766633E-9
-10                       -8.399999999999999       -2.4703223591605796E-9
-10                       -8.3                     -2.4972950005087596E-9
-10                       -8.2                     -2.524679314786763E-9
-10                       -8.099999999999998       -2.55206362906478E-9
-10                       -8                       -2.579503051075187E-9
-10                       -7.9                     -2.6077971991382275E-9
-10                       -7.8                     -2.6362092500704453E-9
-10                       -7.699999999999999       -2.664874874274778E-9
-10                       -7.6                     -2.6935404984791142E-9
-10                       -7.499999999999999       -2.72217786493587E-9
-10                       -7.4                     -2.751710689722045E-9
-10                       -7.3                     -2.7817166207818445E-9
-10                       -7.199999999999998       -2.8117225518416356E-9
-10                       -7.099999999999999       -2.8417284829014995E-9
-10                       -7                       -2.871117026790144E-9
-10                       -6.9                     -2.9024634834152097E-9
-10                       -6.799999999999999       -2.9338099400402754E-9
-10                       -6.699999999999999       -2.9642688871742674E-9
-10                       -6.6                     -2.9947485366719694E-9
-10                       -6.5                     -3.0275795790838356E-9
-10                       -6.3999999999999995      -3.0592373833396038E-9
-10                       -6.3                     -3.0908951875952793E-9
-10                       -6.199999999999999       -3.122552991850968E-9
-10                       -6.099999999999999       -3.1559266178099844E-9
-10                       -6                       -3.1885633354393666E-9
-10                       -5.8999999999999995      -3.2212000530687057E-9
-10                       -5.8                     -3.2538367706980762E-9
-10                       -5.699999999999999       -3.287151407774598E-9
-10                       -5.6                     -3.3212088827941945E-9
-10                       -5.5                     -3.354852498830648E-9
-10                       -5.3999999999999995      -3.388496114867127E-9
-10                       -5.299999999999999       -3.422802052470529E-9
-10                       -5.199999999999999       -3.4562377960132055E-9
-10                       -5.1                     -3.491027314698786E-9
-10                       -5                       -3.5256091531803886E-9
-10                       -4.899999999999999       -3.5601909916619845E-9
-10                       -4.8                     -3.5948316708949167E-9
-10                       -4.699999999999999       -3.62926518762343E-9
-10                       -4.599999999999999       -3.663694938549392E-9
-10                       -4.5                     -3.6981246894752933E-9
-10                       -4.3999999999999995      -3.7335056716577475E-9
-10                       -4.3                     -3.769863433982174E-9
-10                       -4.199999999999998       -3.804265299801881E-9
-10                       -4.1                     -3.838667165621574E-9
-10                       -4                       -3.873069031441294E-9
-10                       -3.899999999999999       -3.9071311379566484E-9
-10                       -3.8                     -3.941074241035996E-9
-10                       -3.6999999999999993      -3.974652689046204E-9
-10                       -3.599999999999999       -4.009943057259691E-9
-10                       -3.5                     -4.044370259488704E-9
-10                       -3.399999999999999       -4.078410653738515E-9
-10                       -3.3                     -4.11245104798832E-9
-10                       -3.199999999999999       -4.146491442238142E-9
-10                       -3.0999999999999996      -4.175749427303108E-9
-10                       -3                       -4.2120805733402145E-9
-10                       -2.8999999999999995      -4.242628871202441E-9
-10                       -2.8                     -4.273177169064666E-9
-10                       -2.6999999999999993      -4.30372546692697E-9
-10                       -2.5999999999999996      -4.333552199047085E-9
-10                       -2.5                     -4.364107008309813E-9
-10                       -2.3999999999999995      -4.3932113334319565E-9
-10                       -2.2999999999999994      -4.42231565855414E-9
-10                       -2.1999999999999993      -4.449777580665479E-9
-10                       -2.099999999999999       -4.477047950991107E-9
-10                       -2                       -4.504318321316735E-9
-10                       -1.9000000000000001      -4.530149271538288E-9
-10                       -1.799999999999999       -4.5526513720961E-9
-10                       -1.6999999999999993      -4.575153472653936E-9
-10                       -1.5999999999999994      -4.597655573211692E-9
-10                       -1.5                     -4.619325435366323E-9
-10                       -1.4000000000000004      -4.63959045123817E-9
-10                       -1.2999999999999987      -4.657979531099774E-9
-10                       -1.1999999999999993      -4.676368610961364E-9
-10                       -1.0999999999999996      -4.692269175671744E-9
-10                       -1                       -4.706972328491488E-9
-10                       -0.9000000000000002      -4.721675481311239E-9
-10                       -0.7999999999999989      -4.731687151445907E-9
-10                       -0.6999999999999992      -4.742382297039936E-9
-10                       -0.5999999999999996      -4.754322972225207E-9
-10                       -0.5                     -4.761791122707369E-9
-10                       -0.3999999999999986      -4.7692592731895795E-9
-10                       -0.29999999999999893     -4.77383427186401E-9
-10                       -0.1999999999999993      -4.7777243461969135E-9
-10                       -0.09999999999999964     -4.781614420529715E-9
-10                       0                        -4.778945175584853E-9
-10                       0.10000000000000141      -4.780658988472753E-9
-10                       0.20000000000000104      -4.7776102004975885E-9
-10                       0.30000000000000066      -4.774561412522446E-9
-10                       0.40000000000000036      -4.768723341031396E-9
-10                       0.5                      -4.7620702466711224E-9
-10                       0.6000000000000013       -4.755417152310855E-9
-10                       0.7000000000000011       -4.7426340741755295E-9
-10                       0.8000000000000007       -4.734202028905664E-9
-10                       0.9000000000000002       -4.720666877962862E-9
-10                       1                        -4.7071317270200145E-9
-10                       1.1000000000000014       -4.6923662138270924E-9
-10                       1.200000000000001        -4.67526315996377E-9
-10                       1.3000000000000007       -4.657706222568263E-9
-10                       1.4000000000000004       -4.639540726503222E-9
-10                       1.5                      -4.619277147327166E-9
-10                       1.6000000000000014       -4.597474528670011E-9
-10                       1.700000000000001        -4.575671910012863E-9
-10                       1.8000000000000005       -4.552659071601262E-9
-10                       1.9000000000000001       -4.52933498360634E-9
-10                       2                        -4.503360460198989E-9
-10                       2.1000000000000014       -4.477007275191462E-9
-10                       2.200000000000001        -4.449443377134142E-9
-10                       2.3000000000000003       -4.421755096395284E-9
-10                       2.4000000000000004       -4.3940668156563396E-9
-10                       2.5                      -4.366110365364012E-9
-10                       2.6000000000000014       -4.335200602121447E-9
-10                       2.7000000000000006       -4.304290838878817E-9
-10                       2.8000000000000007       -4.273009964293295E-9
-10                       2.9000000000000004       -4.2404210015870226E-9
-10                       3                        -4.208095675848615E-9
-10                       3.1000000000000014       -4.176613363391753E-9
-10                       3.200000000000001        -4.144712444827852E-9
-10                       3.3000000000000007       -4.111982271734712E-9
-10                       3.4                      -4.079252098641666E-9
-10                       3.5                      -4.044878958307866E-9
-10                       3.600000000000001        -4.009606665072715E-9
-10                       3.700000000000001        -3.9761953001653564E-9
-10                       3.8000000000000003       -3.941738654099921E-9
-10                       3.9                      -3.9072820080345116E-9
-10                       4                        -3.8727145090050316E-9
-10                       4.100000000000001        -3.837708888967612E-9
-10                       4.200000000000001        -3.802703268930173E-9
-10                       4.300000000000001        -3.767697648892721E-9
-10                       4.4                      -3.733697963506396E-9
-10                       4.5                      -3.699497286972594E-9
-10                       4.6000000000000005       -3.664439049374973E-9
-10                       4.700000000000001        -3.629380811777359E-9
-10                       4.800000000000001        -3.5943313016496235E-9
-10                       4.9                      -3.559422220159036E-9
-10                       5                        -3.5245131386684677E-9
-10                       5.100000000000001        -3.4899860637408595E-9
-10                       5.200000000000001        -3.456604685749259E-9
-10                       5.3                      -3.4229954683500586E-9
-10                       5.4                      -3.3887988466305337E-9
-10                       5.5                      -3.354602224910956E-9
-10                       5.600000000000001        -3.3205235912667577E-9
-10                       5.7                      -3.2867874682610795E-9
-10                       5.800000000000001        -3.253051345255378E-9
-10                       5.9                      -3.2201742334432142E-9
-10                       6                        -3.1879651642550647E-9
-10                       6.1000000000000005       -3.156005457717157E-9
-10                       6.199999999999999        -3.1232580707202073E-9
-10                       6.300000000000001        -3.0905568327324926E-9
-10                       6.400000000000002        -3.0581452555907342E-9
-10                       6.5                      -3.0260581296416723E-9
-10                       6.600000000000001        -2.994838296575288E-9
-10                       6.699999999999999        -2.9638318933642912E-9
-10                       6.8                      -2.932854564390914E-9
-10                       6.900000000000002        -2.9020036839009358E-9
-10                       7                        -2.8711528034109574E-9
-10                       7.100000000000001        -2.840740815510679E-9
-10                       7.199999999999998        -2.8105077558747035E-9
-10                       7.300000000000001        -2.780274696238706E-9
-10                       7.400000000000002        -2.7515954805588325E-9
-10                       7.499999999999999        -2.7221372030294665E-9
-10                       7.6000000000000005       -2.6932319495650023E-9
-10                       7.699999999999999        -2.664326696100533E-9
-10                       7.8                      -2.6356743065586042E-9
-10                       7.900000000000002        -2.6073931446191523E-9
-10                       8                        -2.5791119826796805E-9
-10                       8.1                      -2.552053999237769E-9
-10                       8.2                      -2.5248092545538165E-9
-10                       8.3                      -2.4970516325516075E-9
-10                       8.400000000000002        -2.4700969744340524E-9
-10                       8.5                      -2.4431423163165063E-9
-10                       8.600000000000001        -2.416771308984955E-9
-10                       8.7                      -2.3904357139172776E-9
-10                       8.8                      -2.3641001188495744E-9
-10                       8.9                      -2.339184365470669E-9
-10                       9                        -2.313285335818074E-9
-10                       9.100000000000001        -2.2881940981512085E-9
-10                       9.200000000000001        -2.2631028604843247E-9
-10                       9.3                      -2.2383099119732027E-9
-10                       9.400000000000002        -2.2138033756610147E-9
-10                       9.499999999999998        -2.189296839348771E-9
-10                       9.600000000000001        -2.1657750277912953E-9
-10                       9.700000000000003        -2.1414507899697706E-9
-10                       9.8                      -2.1180939414518457E-9
-10                       9.900000000000002        -2.094737092933893E-9
-10                       10                       -2.0713762685992826E-9
-9.9                      -10                      -2.0673808996320157E-9
-9.9                      -9.9                     -2.0908786910040482E-9
-9.9                      -9.8                     -2.114561309745895E-9
-9.9                      -9.7                     -2.1382439284877726E-9
-9.9                      -9.6                     -2.1619265472295988E-9
-9.9                      -9.499999999999998       -2.1861684920354613E-9
-9.9                      -9.4                     -2.2109225849637532E-9
-9.9                      -9.3                     -2.2355567359228016E-9
-9.9                      -9.199999999999998       -2.2601908868818243E-9
-9.9                      -9.1                     -2.284974710912723E-9
-9.9                      -9                       -2.3106763646996863E-9
-9.9                      -8.9                     -2.336451022050349E-9
-9.9                      -8.8                     -2.362225679401015E-9
-9.9                      -8.7                     -2.388000336751684E-9
-9.9                      -8.6                     -2.414297926430133E-9
-9.9                      -8.5                     -2.4413753444123965E-9
-9.9                      -8.399999999999999       -2.468366875296297E-9
-9.9                      -8.3                     -2.495358406180199E-9
-9.9                      -8.2                     -2.5227417592274446E-9
-9.9                      -8.099999999999998       -2.5502888005956287E-9
-9.9                      -8                       -2.5785829486586486E-9
-9.9                      -7.9                     -2.6068770967216602E-9
-9.9                      -7.8                     -2.635341905606946E-9
-9.9                      -7.699999999999999       -2.664007529811312E-9
-9.9                      -7.6                     -2.692806502956839E-9
-9.9                      -7.499999999999999       -2.7224846994088406E-9
-9.9                      -7.4                     -2.752118504519864E-9
-9.9                      -7.3                     -2.782124435579726E-9
-9.9                      -7.199999999999998       -2.812130366639509E-9
-9.9                      -7.099999999999999       -2.842235621612024E-9
-9.9                      -7                       -2.873304245684573E-9
-9.9                      -6.9                     -2.904392915055076E-9
-9.9                      -6.799999999999999       -2.9357393716801402E-9
-9.9                      -6.699999999999999       -2.9670858283052175E-9
-9.9                      -6.6                     -2.998527726508438E-9
-9.9                      -6.5                     -3.0307118694003144E-9
-9.9                      -6.3999999999999995      -3.0633606795055348E-9
-9.9                      -6.3                     -3.096009489610736E-9
-9.9                      -6.199999999999999       -3.1278086619792803E-9
-9.9                      -6.099999999999999       -3.160835302608206E-9
-9.9                      -6                       -3.1947560422430268E-9
-9.9                      -5.8999999999999995      -3.228676781877788E-9
-9.9                      -5.8                     -3.2625975215126218E-9
-9.9                      -5.699999999999999       -3.2942878204282893E-9
-9.9                      -5.6                     -3.3294992826440946E-9
-9.9                      -5.5                     -3.3646525427437053E-9
-9.9                      -5.3999999999999995      -3.3982961587801013E-9
-9.9                      -5.299999999999999       -3.4319397748166694E-9
-9.9                      -5.199999999999999       -3.468932891052979E-9
-9.9                      -5.1                     -3.503514729534522E-9
-9.9                      -5                       -3.5380965680161246E-9
-9.9                      -4.899999999999999       -3.57267840649776E-9
-9.9                      -4.8                     -3.609098282209462E-9
-9.9                      -4.699999999999999       -3.643970739859536E-9
-9.9                      -4.599999999999999       -3.6788131858641474E-9
-9.9                      -4.5                     -3.7148517052351462E-9
-9.9                      -4.3999999999999995      -3.750890224606152E-9
-9.9                      -4.3                     -3.787082151663141E-9
-9.9                      -4.199999999999998       -3.8233205566980745E-9
-9.9                      -4.1                     -3.859326356913511E-9
-9.9                      -4                       -3.893728222733193E-9
-9.9                      -3.899999999999999       -3.927953682505713E-9
-9.9                      -3.8                     -3.964100760239149E-9
-9.9                      -3.6999999999999993      -3.999391128452663E-9
-9.9                      -3.599999999999999       -4.0346814966660705E-9
-9.9                      -3.5                     -4.070128995587647E-9
-9.9                      -3.399999999999999       -4.10416938983749E-9
-9.9                      -3.3                     -4.138209784087319E-9
-9.9                      -3.199999999999999       -4.171817215663104E-9
-9.9                      -3.0999999999999996      -4.206762565991491E-9
-9.9                      -3                       -4.240013931612467E-9
-9.9                      -2.8999999999999995      -4.2733350913589145E-9
-9.9                      -2.8                     -4.306656251105349E-9
-9.9                      -2.6999999999999993      -4.339977410851869E-9
-9.9                      -2.5999999999999996      -4.367892848689077E-9
-9.9                      -2.5                     -4.400946268855722E-9
-9.9                      -2.3999999999999995      -4.430050593977889E-9
-9.9                      -2.2999999999999994      -4.4591549191000935E-9
-9.9                      -2.1999999999999993      -4.4874484696725195E-9
-9.9                      -2.099999999999999       -4.5147188399982E-9
-9.9                      -2                       -4.541937397475839E-9
-9.9                      -1.9000000000000001      -4.568827427488079E-9
-9.9                      -1.799999999999999       -4.5940061789112685E-9
-9.9                      -1.6999999999999993      -4.619184930334484E-9
-9.9                      -1.5999999999999994      -4.639365000324121E-9
-9.9                      -1.5                     -4.666448639718689E-9
-9.9                      -1.4000000000000004      -4.684837719580293E-9
-9.9                      -1.2999999999999987      -4.703226799441926E-9
-9.9                      -1.1999999999999993      -4.7216158793034936E-9
-9.9                      -1.0999999999999996      -4.739676221579897E-9
-9.9                      -1                       -4.754379374399603E-9
-9.9                      -0.9000000000000002      -4.769205216707118E-9
-9.9                      -0.7999999999999989      -4.782712187894065E-9
-9.9                      -0.6999999999999992      -4.794386920614177E-9
-9.9                      -0.5999999999999996      -4.804092480350688E-9
-9.9                      -0.5                     -4.8137980400872465E-9
-9.9                      -0.3999999999999986      -4.818533380867519E-9
-9.9                      -0.29999999999999893     -4.823505872066128E-9
-9.9                      -0.1999999999999993      -4.828913406062379E-9
-9.9                      -0.09999999999999964     -4.8312478788376395E-9
-9.9                      0                        -4.832621053299047E-9
-9.9                      0.10000000000000141      -4.831110332818489E-9
-9.9                      0.20000000000000104      -4.827632863217137E-9
-9.9                      0.30000000000000066      -4.824584075242008E-9
-9.9                      0.40000000000000036      -4.818321987169378E-9
-9.9                      0.5                      -4.8124324027080595E-9
-9.9                      0.6000000000000013       -4.80371441094753E-9
-9.9                      0.7000000000000011       -4.794385663121718E-9
-9.9                      0.8000000000000007       -4.781927667118539E-9
-9.9                      0.9000000000000002       -4.769205621053408E-9
-9.9                      1                        -4.755670470110605E-9
-9.9                      1.1000000000000014       -4.739300717764166E-9
-9.9                      1.200000000000001        -4.722197663900822E-9
-9.9                      1.3000000000000007       -4.705094610037468E-9
-9.9                      1.4000000000000004       -4.684457441544413E-9
-9.9                      1.5                      -4.661184497960883E-9
-9.9                      1.6000000000000014       -4.639381879303723E-9
-9.9                      1.700000000000001        -4.617579260646547E-9
-9.9                      1.8000000000000005       -4.595776641989357E-9
-9.9                      1.9000000000000001       -4.5684479913564015E-9
-9.9                      2                        -4.542094806349007E-9
-9.9                      2.1000000000000014       -4.5157416213415204E-9
-9.9                      2.200000000000001        -4.488557186169043E-9
-9.9                      2.3000000000000003       -4.460110882065228E-9
-9.9                      2.4000000000000004       -4.4299803243499565E-9
-9.9                      2.5                      -4.398545137596673E-9
-9.9                      2.6000000000000014       -4.36793504902389E-9
-9.9                      2.7000000000000006       -4.337025285781325E-9
-9.9                      2.8000000000000007       -4.305571742042664E-9
-9.9                      2.9000000000000004       -4.272982779336394E-9
-9.9                      3                        -4.240393816630158E-9
-9.9                      3.1000000000000014       -4.2078048539238605E-9
-9.9                      3.200000000000001        -4.172668455921235E-9
-9.9                      3.3000000000000007       -4.140102540329362E-9
-9.9                      3.4                      -4.104965308590072E-9
-9.9                      3.5                      -4.069828076850724E-9
-9.9                      3.600000000000001        -4.03444953765362E-9
-9.9                      3.700000000000001        -3.9984612717234034E-9
-9.9                      3.8000000000000003       -3.962524371533705E-9
-9.9                      3.9                      -3.928067725468326E-9
-9.9                      4                        -3.8934487246843545E-9
-9.9                      4.100000000000001        -3.858443104646949E-9
-9.9                      4.200000000000001        -3.823437484609563E-9
-9.9                      4.300000000000001        -3.7872875987326254E-9
-9.9                      4.4                      -3.750505169389956E-9
-9.9                      4.5                      -3.713593908513686E-9
-9.9                      4.6000000000000005       -3.6785356709161066E-9
-9.9                      4.700000000000001        -3.643477433318496E-9
-9.9                      4.800000000000001        -3.6084333981633467E-9
-9.9                      4.9                      -3.5735243166727765E-9
-9.9                      5                        -3.538615235182181E-9
-9.9                      5.100000000000001        -3.5037061536916286E-9
-9.9                      5.200000000000001        -3.4677169163914945E-9
-9.9                      5.3                      -3.431860039015541E-9
-9.9                      5.4                      -3.3976634172960326E-9
-9.9                      5.5                      -3.3634667955764746E-9
-9.9                      5.600000000000001        -3.329369156512085E-9
-9.9                      5.7                      -3.295633033506423E-9
-9.9                      5.800000000000001        -3.2618969105007087E-9
-9.9                      5.9                      -3.2281607874950206E-9
-9.9                      6                        -3.194196711741809E-9
-9.9                      6.1000000000000005       -3.1605851283307853E-9
-9.9                      6.199999999999999        -3.1278838903430644E-9
-9.9                      6.300000000000001        -3.095182652355316E-9
-9.9                      6.400000000000002        -3.062811068464615E-9
-9.9                      6.5                      -3.030723942515554E-9
-9.9                      6.600000000000001        -2.9986368165665244E-9
-9.9                      6.699999999999999        -2.967078724437235E-9
-9.9                      6.8                      -2.9346793840439795E-9
-9.9                      6.900000000000002        -2.903828503554022E-9
-9.9                      7                        -2.8729776230640535E-9
-9.9                      7.100000000000001        -2.8424044911549306E-9
-9.9                      7.199999999999998        -2.8121714315189495E-9
-9.9                      7.300000000000001        -2.7819383718829133E-9
-9.9                      7.400000000000002        -2.7522237789649945E-9
-9.9                      7.499999999999999        -2.7216082293698987E-9
-9.9                      7.6000000000000005       -2.69270297590551E-9
-9.9                      7.699999999999999        -2.6637977224410592E-9
-9.9                      7.8                      -2.634955364483656E-9
-9.9                      7.900000000000002        -2.606674202544186E-9
-9.9                      8                        -2.578393040604706E-9
-9.9                      8.1                      -2.550683871175665E-9
-9.9                      8.2                      -2.522765253466275E-9
-9.9                      8.3                      -2.4946946300767755E-9
-9.9                      8.400000000000002        -2.4677399719592282E-9
-9.9                      8.5                      -2.4407853138416445E-9
-9.9                      8.600000000000001        -2.4142464344959777E-9
-9.9                      8.7                      -2.387910839428301E-9
-9.9                      8.8                      -2.3620542598750176E-9
-9.9                      8.9                      -2.335863489144796E-9
-9.9                      9                        -2.31015972705881E-9
-9.9                      9.100000000000001        -2.2844883122716852E-9
-9.9                      9.200000000000001        -2.2593970746048403E-9
-9.9                      9.3                      -2.2344785605659277E-9
-9.9                      9.400000000000002        -2.209972024253713E-9
-9.9                      9.499999999999998        -2.1854654879414972E-9
-9.9                      9.600000000000001        -2.1613910300820914E-9