% Model:              rectangular_wire_2.mph
% Version:            COMSOL 5.3.1.229
% Date:               Oct 26 2018, 12:45
% Dimension:          2
% Nodes:              40401
% Expressions:        1
% Description:        Magnetic flux density norm
% Length unit:        µm
% x                       y                        mf.normB (T)
-10                       -10                      2.7334419494193405E-9
-10                       -9.9                     2.7542682954903905E-9
-10                       -9.8                     2.775145017769817E-9
-10                       -9.7                     2.7960709878634706E-9
-10                       -9.6                     2.8170451082830814E-9
-10                       -9.499999999999998       2.837695739113449E-9
-10                       -9.4                     2.8590815515299095E-9
-10                       -9.3                     2.880789342867012E-9
-10                       -9.199999999999998       2.9025496866534466E-9
-10                       -9.1                     2.9240533186435855E-9
-10                       -9                       2.9454283763854234E-9
-10                       -8.9                     2.9677612792257627E-9
-10                       -8.8                     2.990254448694209E-9
-10                       -8.7                     3.0125821011826493E-9
-10                       -8.6                     3.034674711597881E-9
-10                       -8.5                     3.056828380928128E-9
-10                       -8.399999999999999       3.080069117596794E-9
-10                       -8.3                     3.1032794194403726E-9
-10                       -8.2                     3.126055272959267E-9
-10                       -8.099999999999998       3.1489049807672026E-9
-10                       -8                       3.171796039713881E-9
-10                       -7.9                     3.195883470076242E-9
-10                       -7.8                     3.2195256266613904E-9
-10                       -7.699999999999999       3.2430362853727945E-9
-10                       -7.6                     3.2666292828907034E-9
-10                       -7.499999999999999       3.2901166499972752E-9
-10                       -7.4                     3.3148217442964115E-9
-10                       -7.3                     3.339029586571556E-9
-10                       -7.199999999999998       3.3633314257031902E-9
-10                       -7.099999999999999       3.3877252388333E-9
-10                       -7                       3.411768750569767E-9
-10                       -6.9                     3.4366320329204187E-9
-10                       -6.799999999999999       3.461603032638876E-9
-10                       -6.699999999999999       3.485991901684421E-9
-10                       -6.6                     3.5105114286371476E-9
-10                       -6.5                     3.536192379873868E-9
-10                       -6.3999999999999995      3.561003494660065E-9
-10                       -6.3                     3.5859282016148692E-9
-10                       -6.199999999999999       3.6109641485267684E-9
-10                       -6.099999999999999       3.6367358070855657E-9
-10                       -6                       3.661807661639131E-9
-10                       -5.8999999999999995      3.687010000881584E-9
-10                       -5.8                     3.71234016731013E-9
-10                       -5.699999999999999       3.73716347519525E-9
-10                       -5.6                     3.7634931045012675E-9
-10                       -5.5                     3.788935051465571E-9
-10                       -5.3999999999999995      3.814526192811802E-9
-10                       -5.299999999999999       3.840094942711291E-9
-10                       -5.199999999999999       3.864845336369317E-9
-10                       -5.1                     3.891061316846278E-9
-10                       -5                       3.916726437624085E-9
-10                       -4.899999999999999       3.942566445653665E-9
-10                       -4.8                     3.967715977677913E-9
-10                       -4.699999999999999       3.993302668877923E-9
-10                       -4.599999999999999       4.0178901542565975E-9
-10                       -4.5                     4.042687244912369E-9
-10                       -4.3999999999999995      4.068778902956256E-9
-10                       -4.3                     4.094833029152335E-9
-10                       -4.199999999999998       4.1193961444210176E-9
-10                       -4.1                     4.1441818071160485E-9
-10                       -4                       4.16918604812978E-9
-10                       -3.899999999999999       4.192702644176111E-9
-10                       -3.8                     4.216211671197391E-9
-10                       -3.6999999999999993      4.2394492263242E-9
-10                       -3.599999999999999       4.264605347093866E-9
-10                       -3.5                     4.289317224699705E-9
-10                       -3.399999999999999       4.312544968189003E-9
-10                       -3.3                     4.336084888725257E-9
-10                       -3.199999999999999       4.3599319298405915E-9
-10                       -3.0999999999999996      4.379806719690469E-9
-10                       -3                       4.404851238254127E-9
-10                       -2.8999999999999995      4.425218278379617E-9
-10                       -2.8                     4.445915252540452E-9
-10                       -2.6999999999999993      4.466937574619757E-9
-10                       -2.5999999999999996      4.486213559103936E-9
-10                       -2.5                     4.507203868878331E-9
-10                       -2.3999999999999995      4.526666715991549E-9
-10                       -2.2999999999999994      4.546512024603236E-9
-10                       -2.1999999999999993      4.564596407810313E-9
-10                       -2.099999999999999       4.582624547726021E-9
-10                       -2                       4.6010803447182145E-9
-10                       -1.9000000000000001      4.618687487572256E-9
-10                       -1.799999999999999       4.632715711574082E-9
-10                       -1.6999999999999993      4.647198247774301E-9
-10                       -1.5999999999999994      4.662130862321327E-9
-10                       -1.5                     4.676285512738645E-9
-10                       -1.4000000000000004      4.689980016558928E-9
-10                       -1.2999999999999987      4.701555657508013E-9
-10                       -1.1999999999999993      4.713643572806217E-9
-10                       -1.0999999999999996      4.723780000222932E-9
-10                       -1                       4.733218459917895E-9
-10                       -0.9000000000000002      4.74314837881651E-9
-10                       -0.7999999999999989      4.748478062279712E-9
-10                       -0.6999999999999992      4.7555686843651535E-9
-10                       -0.5999999999999996      4.763874472256741E-9
-10                       -0.5                     4.7684912061298355E-9
-10                       -0.3999999999999986      4.773614573704158E-9
-10                       -0.29999999999999893     4.776242129409393E-9
-10                       -0.1999999999999993      4.778801434845596E-9
-10                       -0.09999999999999964     4.7818892718853524E-9
-10                       0                        4.778945664433333E-9
-10                       0.10000000000000141      4.780938270172077E-9
-10                       0.20000000000000104      4.778696633151054E-9
-10                       0.30000000000000066      4.776983830984598E-9
-10                       0.40000000000000036      4.7730614329238535E-9
-10                       0.5                      4.7687899452547515E-9
-10                       0.6000000000000013       4.765040596559936E-9
-10                       0.7000000000000011       4.755492246120005E-9
-10                       0.8000000000000007       4.751265130309451E-9
-10                       0.9000000000000002       4.742104525100715E-9
-10                       1                        4.733453530433416E-9
-10                       1.1000000000000014       4.723927894538416E-9
-10                       1.200000000000001        4.71277360571117E-9
-10                       1.3000000000000007       4.701463396527037E-9
-10                       1.4000000000000004       4.6895443328441215E-9
-10                       1.5                      4.676330356417781E-9
-10                       1.6000000000000014       4.662015047501246E-9
-10                       1.700000000000001        4.648189857727883E-9
-10                       1.8000000000000005       4.633002787721119E-9
-10                       1.9000000000000001       4.617475651374487E-9
-10                       2                        4.600294567574322E-9
-10                       2.1000000000000014       4.583194726027115E-9
-10                       2.200000000000001        4.56442572386119E-9
-10                       2.3000000000000003       4.545834940432685E-9
-10                       2.4000000000000004       4.5276361015879815E-9
-10                       2.5                      4.509188787975596E-9
-10                       2.6000000000000014       4.4880711135299035E-9
-10                       2.7000000000000006       4.467333990613979E-9
-10                       2.8000000000000007       4.446147221635931E-9
-10                       2.9000000000000004       4.423412093065567E-9
-10                       3                        4.401235489812604E-9
-10                       3.1000000000000014       4.380122032003933E-9
-10                       3.200000000000001        4.3589493974084505E-9
-10                       3.3000000000000007       4.335977322958832E-9
-10                       3.4                      4.313286426623004E-9
-10                       3.5                      4.2895487967934335E-9
-10                       3.600000000000001        4.264483635080026E-9
-10                       3.700000000000001        4.24127381990545E-9
-10                       3.8000000000000003       4.217082927489858E-9
-10                       3.9                      4.1931610156861344E-9
-10                       4                        4.169045088874875E-9
-10                       4.100000000000001        4.143539211871466E-9
-10                       4.200000000000001        4.118257269226191E-9
-10                       4.300000000000001        4.093203410377473E-9
-10                       4.4                      4.069260651845216E-9
-10                       4.5                      4.044227855814993E-9
-10                       4.6000000000000005       4.0187513987632835E-9
-10                       4.700000000000001        3.9934848090676875E-9
-10                       4.800000000000001        3.9683271005866576E-9
-10                       4.9                      3.941983787582112E-9
-10                       5                        3.915812776782369E-9
-10                       5.100000000000001        3.890267143201452E-9
-10                       5.200000000000001        3.865839540561609E-9
-10                       5.3                      3.840499284164499E-9
-10                       5.4                      3.814797454729802E-9
-10                       5.5                      3.789258227662123E-9
-10                       5.600000000000001        3.763764575665154E-9
-10                       5.7                      3.737504055606956E-9
-10                       5.800000000000001        3.711378736488564E-9
-10                       5.9                      3.6864204250117984E-9
-10                       6                        3.661895047675201E-9
-10                       6.1000000000000005       3.636908408878639E-9
-10                       6.199999999999999        3.611468663367185E-9
-10                       6.300000000000001        3.5861732396369626E-9
-10                       6.400000000000002        3.5608223875901985E-9
-10                       6.5                      3.535143375492286E-9
-10                       6.600000000000001        3.5106023076537084E-9
-10                       6.699999999999999        3.4859267582115923E-9
-10                       6.8                      3.461328284771471E-9
-10                       6.900000000000002        3.436624009976892E-9
-10                       7                        3.412021812993686E-9
-10                       7.100000000000001        3.387549126127035E-9
-10                       7.199999999999998        3.3627417958231143E-9
-10                       7.300000000000001        3.3380241848703303E-9
-10                       7.400000000000002        3.314675303791314E-9
-10                       7.499999999999999        3.2907414977504296E-9
-10                       7.6000000000000005       3.2669067867678474E-9
-10                       7.699999999999999        3.243154534883502E-9
-10                       7.8                      3.2196193026694006E-9
-10                       7.900000000000002        3.195790731990987E-9
-10                       8                        3.172035794634757E-9
-10                       8.1                      3.149816084429078E-9
-10                       8.2                      3.1263544411654574E-9
-10                       8.3                      3.103166107375228E-9
-10                       8.400000000000002        3.0803614246232853E-9
-10                       8.5                      3.0576255030417136E-9
-10                       8.600000000000001        3.0350428424588015E-9
-10                       8.7                      3.012353014697165E-9
-10                       8.8                      2.9897257697906862E-9
-10                       8.9                      2.968072276398648E-9
-10                       9                        2.946017920678178E-9
-10                       9.100000000000001        2.9242318887576805E-9
-10                       9.200000000000001        2.9025032468519057E-9
-10                       9.3                      2.880953562755249E-9
-10                       9.400000000000002        2.8593621631514233E-9
-10                       9.499999999999998        2.8378240248525783E-9
-10                       9.600000000000001        2.817528411083911E-9
-10                       9.700000000000003        2.795782086951231E-9
-10                       9.8                      2.775082219126701E-9
-10                       9.900000000000002        2.754431904282662E-9
-10                       10                       2.733992296416918E-9
-9.9                      -10                      2.7451948616023554E-9
-9.9                      -9.9                     2.7661641043732662E-9
-9.9                      -9.8                     2.7870701419699354E-9
-9.9                      -9.7                     2.80802764113331E-9
-9.9                      -9.6                     2.8290354581814724E-9
-9.9                      -9.499999999999998       2.8504569584383783E-9
-9.9                      -9.4                     2.872101964135078E-9
-9.9                      -9.3                     2.8937180682564895E-9
-9.9                      -9.199999999999998       2.9153878559391745E-9
-9.9                      -9.1                     2.9369573689703717E-9
-9.9                      -9                       2.95917620563333E-9
-9.9                      -8.9                     2.9815133920539097E-9
-9.9                      -8.8                     3.0039096925242557E-9
-9.9                      -8.7                     3.0263637946419105E-9
-9.9                      -8.6                     3.0483269231893354E-9
-9.9                      -8.5                     3.07156959284982E-9
-9.9                      -8.399999999999999       3.0947062920085994E-9
-9.9                      -8.3                     3.1179073402220903E-9
-9.9                      -8.2                     3.140725023544254E-9
-9.9                      -8.099999999999998       3.163694773834859E-9
-9.9                      -8                       3.187598996227583E-9
-9.9                      -7.9                     3.2115755674751384E-9
-9.9                      -7.8                     3.235359768854079E-9
-9.9                      -7.699999999999999       3.2587485156764764E-9
-9.9                      -7.6                     3.2823710376910864E-9
-9.9                      -7.499999999999999       3.307128927126888E-9
-9.9                      -7.4                     3.3319823976730767E-9
-9.9                      -7.3                     3.356058104233472E-9
-9.9                      -7.199999999999998       3.3802292252392316E-9
-9.9                      -7.099999999999999       3.4045204955722696E-9
-9.9                      -7                       3.430072790682019E-9
-9.9                      -6.9                     3.455139724378639E-9
-9.9                      -6.799999999999999       3.479969115640137E-9
-9.9                      -6.699999999999999       3.504905373927934E-9
-9.9                      -6.6                     3.529826363200536E-9
-9.9                      -6.5                     3.5557600295198507E-9
-9.9                      -6.3999999999999995      3.581199475485608E-9
-9.9                      -6.3                     3.6067611194557773E-9
-9.9                      -6.199999999999999       3.631127667256656E-9
-9.9                      -6.099999999999999       3.657677216713956E-9
-9.9                      -6                       3.683617862341923E-9
-9.9                      -5.8999999999999995      3.7096999089571386E-9
-9.9                      -5.8                     3.735920395019919E-9
-9.9                      -5.699999999999999       3.760514326259198E-9
-9.9                      -5.6                     3.786858631925151E-9
-9.9                      -5.5                     3.8133322097700105E-9
-9.9                      -5.3999999999999995      3.8387660388524016E-9
-9.9                      -5.299999999999999       3.86434724563562E-9
-9.9                      -5.199999999999999       3.892306623968254E-9
-9.9                      -5.1                     3.917620766091087E-9
-9.9                      -5                       3.943114309060089E-9
-9.9                      -4.899999999999999       3.968783795724563E-9
-9.9                      -4.8                     3.995078371105873E-9
-9.9                      -4.699999999999999       4.021108671065456E-9
-9.9                      -4.599999999999999       4.046013243232779E-9
-9.9                      -4.5                     4.0724746976758375E-9
-9.9                      -4.3999999999999995      4.099140020530138E-9
-9.9                      -4.3                     4.124960040794388E-9
-9.9                      -4.199999999999998       4.150615112632935E-9
-9.9                      -4.1                     4.17635137340587E-9
-9.9                      -4                       4.201181865559463E-9
-9.9                      -3.899999999999999       4.224488241337365E-9
-9.9                      -3.8                     4.250301289195204E-9
-9.9                      -3.6999999999999993      4.274989328322051E-9
-9.9                      -3.599999999999999       4.299950279074799E-9
-9.9                      -3.5                     4.325007550760833E-9
-9.9                      -3.399999999999999       4.348034143709186E-9
-9.9                      -3.3                     4.371372522059405E-9
-9.9                      -3.199999999999999       4.394223960362788E-9
-9.9                      -3.0999999999999996      4.418601121989134E-9
-9.9                      -3                       4.441525276679493E-9
-9.9                      -2.8999999999999995      4.464000953087513E-9
-9.9                      -2.8                     4.486839134511275E-9
-9.9                      -2.6999999999999993      4.51003431393054E-9
-9.9                      -2.5999999999999996      4.527801913442675E-9
-9.9                      -2.5                     4.550188528436818E-9
-9.9                      -2.3999999999999995      4.569475903135284E-9
-9.9                      -2.2999999999999994      4.589143667887551E-9
-9.9                      -2.1999999999999993      4.607433647597056E-9
-9.9                      -2.099999999999999       4.625284884407536E-9
-9.9                      -2                       4.6432711226522924E-9
-9.9                      -1.9000000000000001      4.661680631799424E-9
-9.9                      -1.799999999999999       4.6778696844519555E-9
-9.9                      -1.6999999999999993      4.694550127068987E-9
-9.9                      -1.5999999999999994      4.707017633415077E-9
-9.9                      -1.5                     4.726502039489793E-9
-9.9                      -1.4000000000000004      4.737443665565685E-9
-9.9                      -1.2999999999999987      4.7488967692932775E-9
-9.9                      -1.1999999999999993      4.7608576593180636E-9
-9.9                      -1.0999999999999996      4.77257500827706E-9
-9.9                      -1                       4.781918578536381E-9
-9.9                      -0.9000000000000002      4.791692708548726E-9
-9.9                      -0.7999999999999989      4.800466309849E-9
-9.9                      -0.6999999999999992      4.808154880571973E-9
-9.9                      -0.5999999999999996      4.814169758632602E-9
-9.9                      -0.5                     4.820763542875874E-9
-9.9                      -0.3999999999999986      4.823165644069057E-9
-9.9                      -0.29999999999999893     4.826012748584173E-9
-9.9                      -0.1999999999999993      4.8300495131689165E-9
-9.9                      -0.09999999999999964     4.8315237101215195E-9
-9.9                      0                        4.832621097125961E-9
-9.9                      0.10000000000000141      4.831398596371505E-9
-9.9                      0.20000000000000104      4.828773337424473E-9
-9.9                      0.30000000000000066      4.827078427348183E-9
-9.9                      0.40000000000000036      4.8229007204593705E-9
-9.9                      0.5                      4.819465033899604E-9
-9.9                      0.6000000000000013       4.813895778973011E-9
-9.9                      0.7000000000000011       4.808027141682125E-9
-9.9                      0.8000000000000007       4.799818397251006E-9
-9.9                      0.9000000000000002       4.7917175893671194E-9
-9.9                      1                        4.783155062341792E-9
-9.9                      1.1000000000000014       4.772536590702436E-9
-9.9                      1.200000000000001        4.7615009593102185E-9
-9.9                      1.3000000000000007       4.75099164842801E-9
-9.9                      1.4000000000000004       4.736641578376043E-9
-9.9                      1.5                      4.7211456148203335E-9
-9.9                      1.6000000000000014       4.7069800333457886E-9
-9.9                      1.700000000000001        4.693300768316156E-9
-9.9                      1.8000000000000005       4.680112084023287E-9
-9.9                      1.9000000000000001       4.661009155075456E-9
-9.9                      2                        4.64362856632962E-9
-9.9                      2.1000000000000014       4.626704445802778E-9
-9.9                      2.200000000000001        4.608766045011115E-9
-9.9                      2.3000000000000003       4.589759241701766E-9
-9.9                      2.4000000000000004       4.5698971189164675E-9
-9.9                      2.5                      4.548112595434326E-9
-9.9                      2.6000000000000014       4.527739658424431E-9
-9.9                      2.7000000000000006       4.50719718523393E-9
-9.9                      2.8000000000000007       4.486502277425583E-9
-9.9                      2.9000000000000004       4.463957383637793E-9
-9.9                      3                        4.441746144219047E-9
-9.9                      3.1000000000000014       4.419873589323043E-9
-9.9                      3.200000000000001        4.395723645393503E-9
-9.9                      3.3000000000000007       4.373194106713598E-9
-9.9                      3.4                      4.348858749077158E-9
-9.9                      3.5                      4.324843373396317E-9
-9.9                      3.600000000000001        4.300171783749922E-9
-9.9                      3.700000000000001        4.274344691042315E-9
-9.9                      3.8000000000000003       4.248830499583575E-9
-9.9                      3.9                      4.2251058288562515E-9
-9.9                      4                        4.201340764431488E-9
-9.9                      4.100000000000001        4.176014566720152E-9
-9.9                      4.200000000000001        4.150912742038534E-9
-9.9                      4.300000000000001        4.125194004044286E-9
-9.9                      4.4                      4.098960963273799E-9
-9.9                      4.5                      4.071371768930437E-9
-9.9                      4.6000000000000005       4.046083276088499E-9
-9.9                      4.700000000000001        4.021005587303113E-9
-9.9                      4.800000000000001        3.995976961693908E-9
-9.9                      4.9                      3.969800830762945E-9
-9.9                      5                        3.943798005781424E-9
-9.9                      5.100000000000001        3.917971937345563E-9
-9.9                      5.200000000000001        3.891624968110055E-9
-9.9                      5.3                      3.863996731274715E-9
-9.9                      5.4                      3.8384655530282575E-9
-9.9                      5.5                      3.813098253469827E-9
-9.9                      5.600000000000001        3.787538248506746E-9
-9.9                      5.7                      3.761429828516954E-9
-9.9                      5.800000000000001        3.735457870348288E-9
-9.9                      5.9                      3.70962524020575E-9
-9.9                      6                        3.683719047110704E-9
-9.9                      6.1000000000000005       3.657250397051168E-9
-9.9                      6.199999999999999        3.631980807198667E-9
-9.9                      6.300000000000001        3.6068400483377913E-9
-9.9                      6.400000000000002        3.5813548744771054E-9
-9.9                      6.5                      3.555814183582226E-9
-9.9                      6.600000000000001        3.5303839482405074E-9
-9.9                      6.699999999999999        3.50593893255415E-9
-9.9                      6.8                      3.4793498866139578E-9
-9.9                      6.900000000000002        3.454781491933167E-9
-9.9                      7                        3.4303165824646594E-9
-9.9                      7.100000000000001        3.4055021873612383E-9
-9.9                      7.199999999999998        3.380819945925989E-9
-9.9                      7.300000000000001        3.356228781738757E-9
-9.9                      7.400000000000002        3.3317466739679846E-9
-9.9                      7.499999999999999        3.306634158216304E-9
-9.9                      7.6000000000000005       3.2829200457418612E-9
-9.9                      7.699999999999999        3.2592897435602345E-9
-9.9                      7.8                      3.2353590793586396E-9
-9.9                      7.900000000000002        3.211642688750036E-9
-9.9                      8                        3.188001235762211E-9
-9.9                      8.1                      3.1645362664026193E-9
-9.9                      8.2                      3.141503389287222E-9
-9.9                      8.3                      3.117358250592996E-9
-9.9                      8.400000000000002        3.0946618294697965E-9
-9.9                      8.5                      3.07203545051374E-9
-9.9                      8.600000000000001        3.049046149330654E-9
-9.9                      8.7                      3.0264581065818026E-9
-9.9                      8.8                      3.004072714541872E-9
-9.9                      8.9                      2.9820699435484828E-9
-9.9                      9                        2.9593976019630894E-9
-9.9                      9.100000000000001        2.937037351340433E-9
-9.9                      9.200000000000001        2.9154066888719046E-9
-9.9                      9.3                      2.893485264527345E-9
-9.9                      9.400000000000002        2.8719858354689066E-9
-9.9                      9.499999999999998        2.85054082042166E-9
-9.9                      9.600000000000001        2.8290703214880866E-9
-9.9                      9.700000000000003        2.8081613230839564E-9
-9.9                      9.8                      2.7866383414270092E-9
-9.9                      9.900000000000002        2.7660770497759245E-9
-9.9                      10                       2.745421677709792E-9
-9.8                      -10                      2.756709712471048E-9
-9.8                      -9.9                     2.777777628617316E-9